# vtk DataFile Version 4.2
vtk output
ASCII
DATASET UNSTRUCTURED_GRID
FIELD FieldData 4
avtOriginalBounds 1 6 double
585507.625 585911.75 7910249.5 7910762 0 0 
MeshName 1 1 string
Mesh

CYCLE 1 1 int
0 
TIME 1 1 double
0 
POINTS 959 float
585623 7.91027e+06 0 585617 7.91027e+06 0 585614 7.91026e+06 0 
585620 7.91025e+06 0 585624 7.91026e+06 0 585616 7.91027e+06 0 
585604 7.91026e+06 0 585609 7.91026e+06 0 585615 7.91028e+06 0 
585607 7.91027e+06 0 585602 7.91027e+06 0 585626 7.91028e+06 0 
585616 7.91028e+06 0 585629 7.91028e+06 0 585603 7.91028e+06 0 
585596 7.91028e+06 0 585616 7.91029e+06 0 585607 7.9103e+06 0 
585601 7.9103e+06 0 585602 7.91029e+06 0 585593 7.91029e+06 0 
585591 7.9103e+06 0 585602 7.91031e+06 0 585593 7.91031e+06 0 
585606 7.91031e+06 0 585628 7.91032e+06 0 585612 7.91032e+06 0 
585626 7.9103e+06 0 585634 7.9103e+06 0 585635 7.91031e+06 0 
585599 7.91032e+06 0 585599 7.91032e+06 0 585591 7.91032e+06 0 
585586 7.91032e+06 0 585586 7.91033e+06 0 585579 7.91032e+06 0 
585562 7.91033e+06 0 585550 7.91031e+06 0 585554 7.91030e+06 0 
585566 7.9103e+06 0 585567 7.91031e+06 0 585624 7.91033e+06 0 
585618 7.91034e+06 0 585607 7.91034e+06 0 585598 7.91033e+06 0 
585631 7.91033e+06 0 585550 7.91034e+06 0 585545 7.91033e+06 0 
585540 7.91032e+06 0 585542 7.91032e+06 0 585543 7.91031e+06 0 
585533 7.91033e+06 0 585519 7.91034e+06 0 585514 7.91032e+06 0 
585519 7.91031e+06 0 585614 7.91036e+06 0 585606 7.91036e+06 0 
585614 7.91034e+06 0 585615 7.91035e+06 0 585596 7.91036e+06 0 
585596 7.91036e+06 0 585592 7.91036e+06 0 585572 7.91036e+06 0 
585560 7.91036e+06 0 585566 7.91034e+06 0 585547 7.91036e+06 0 
585539 7.91035e+06 0 585546 7.91034e+06 0 585527 7.91034e+06 0 
585533 7.91037e+06 0 585526 7.91037e+06 0 585520 7.91036e+06 0 
585545 7.91038e+06 0 585535 7.91039e+06 0 585548 7.91038e+06 0 
585611 7.91037e+06 0 585607 7.91037e+06 0 585621 7.91037e+06 0 
585623 7.91036e+06 0 585634 7.91036e+06 0 585632 7.91037e+06 0 
585570 7.91037e+06 0 585651 7.91028e+06 0 585648 7.91028e+06 0 
585636 7.91028e+06 0 585634 7.91027e+06 0 585651 7.91027e+06 0 
585635 7.91026e+06 0 585636 7.91025e+06 0 585642 7.91026e+06 0 
585650 7.91026e+06 0 585629 7.91025e+06 0 585652 7.9103e+06 0 
585644 7.9103e+06 0 585636 7.91029e+06 0 585630 7.91029e+06 0 
585628 7.91029e+06 0 585658 7.91031e+06 0 585659 7.91031e+06 0 
585649 7.91032e+06 0 585641 7.91031e+06 0 585644 7.91031e+06 0 
585664 7.91032e+06 0 585655 7.91033e+06 0 585648 7.91032e+06 0 
585646 7.91032e+06 0 585638 7.91032e+06 0 585638 7.91032e+06 0 
585640 7.91033e+06 0 585653 7.91034e+06 0 585636 7.91034e+06 0 
585633 7.91034e+06 0 585665 7.91033e+06 0 585662 7.91034e+06 0 
585652 7.91035e+06 0 585644 7.91035e+06 0 585640 7.91034e+06 0 
585638 7.91035e+06 0 585633 7.91035e+06 0 585676 7.91035e+06 0 
585673 7.91034e+06 0 585683 7.91033e+06 0 585685 7.91034e+06 0 
585686 7.91034e+06 0 585683 7.91035e+06 0 585666 7.91036e+06 0 
585659 7.91036e+06 0 585646 7.91036e+06 0 585660 7.91037e+06 0 
585652 7.91037e+06 0 585684 7.91037e+06 0 585675 7.91037e+06 0 
585678 7.91036e+06 0 585692 7.91036e+06 0 585670 7.91038e+06 0 
585648 7.91038e+06 0 585578 7.91037e+06 0 585577 7.91038e+06 0 
585600 7.91039e+06 0 585596 7.9104e+06 0 585579 7.9104e+06 0 
585575 7.91039e+06 0 585603 7.91038e+06 0 585522 7.91042e+06 0 
585519 7.9104e+06 0 585536 7.9104e+06 0 585538 7.91042e+06 0 
585647 7.9104e+06 0 585634 7.9104e+06 0 585623 7.9104e+06 0 
585644 7.91039e+06 0 585593 7.91043e+06 0 585576 7.91042e+06 0 
585633 7.91045e+06 0 585619 7.91045e+06 0 585617 7.91042e+06 0 
585641 7.91042e+06 0 585636 7.91043e+06 0 585637 7.91044e+06 0 
585597 7.91045e+06 0 585583 7.91046e+06 0 585570 7.91045e+06 0 
585568 7.91042e+06 0 585528 7.91043e+06 0 585555 7.91042e+06 0 
585550 7.91044e+06 0 585526 7.91044e+06 0 585514 7.91044e+06 0 
585518 7.91042e+06 0 585508 7.91044e+06 0 585511 7.91042e+06 0 
585561 7.9104e+06 0 585553 7.91039e+06 0 585557 7.91042e+06 0 
585545 7.91045e+06 0 585531 7.91047e+06 0 585518 7.91047e+06 0 
585523 7.91046e+06 0 585536 7.91047e+06 0 585511 7.91046e+06 0 
585542 7.91046e+06 0 585557 7.91047e+06 0 585635 7.91046e+06 0 
585624 7.91046e+06 0 585620 7.91046e+06 0 585634 7.91045e+06 0 
585620 7.91047e+06 0 585614 7.91047e+06 0 585608 7.91046e+06 0 
585601 7.91046e+06 0 585608 7.91048e+06 0 585602 7.91048e+06 0 
585575 7.91047e+06 0 585562 7.91047e+06 0 585590 7.9105e+06 0 
585571 7.91051e+06 0 585559 7.91049e+06 0 585612 7.91053e+06 0 
585614 7.91052e+06 0 585624 7.91052e+06 0 585621 7.91052e+06 0 
585622 7.91053e+06 0 585607 7.91053e+06 0 585593 7.91053e+06 0 
585588 7.91052e+06 0 585592 7.91051e+06 0 585604 7.91051e+06 0 
585629 7.91048e+06 0 585632 7.91049e+06 0 585627 7.9105e+06 0 
585626 7.9105e+06 0 585631 7.91051e+06 0 585682 7.91039e+06 0 
585666 7.91039e+06 0 585665 7.91038e+06 0 585686 7.91038e+06 0 
585677 7.91041e+06 0 585669 7.9104e+06 0 585662 7.9104e+06 0 
585698 7.91039e+06 0 585696 7.91040e+06 0 585653 7.9104e+06 0 
585649 7.91039e+06 0 585674 7.91042e+06 0 585689 7.91042e+06 0 
585667 7.91042e+06 0 585665 7.91041e+06 0 585661 7.91041e+06 0 
585649 7.91041e+06 0 585651 7.91042e+06 0 585644 7.91044e+06 0 
585690 7.91042e+06 0 585686 7.91044e+06 0 585680 7.91045e+06 0 
585668 7.91045e+06 0 585664 7.91045e+06 0 585662 7.91043e+06 0 
585655 7.91043e+06 0 585650 7.91044e+06 0 585644 7.91045e+06 0 
585668 7.91046e+06 0 585666 7.91046e+06 0 585686 7.91045e+06 0 
585684 7.91046e+06 0 585651 7.91046e+06 0 585648 7.91045e+06 0 
585651 7.91047e+06 0 585642 7.91047e+06 0 585644 7.91049e+06 0 
585666 7.91047e+06 0 585671 7.91049e+06 0 585658 7.91049e+06 0 
585686 7.91047e+06 0 585688 7.91048e+06 0 585690 7.91049e+06 0 
585650 7.91049e+06 0 585646 7.91049e+06 0 585676 7.91052e+06 0 
585668 7.91052e+06 0 585670 7.9105e+06 0 585689 7.91051e+06 0 
585685 7.91052e+06 0 585674 7.91053e+06 0 585666 7.91053e+06 0 
585668 7.91052e+06 0 585651 7.91051e+06 0 585658 7.9105e+06 0 
585658 7.91052e+06 0 585645 7.91050e+06 0 585648 7.9105e+06 0 
585643 7.91053e+06 0 585641 7.91053e+06 0 585634 7.91053e+06 0 
585633 7.91053e+06 0 585627 7.91053e+06 0 585652 7.91053e+06 0 
585696 7.91035e+06 0 585694 7.91034e+06 0 585699 7.91033e+06 0 
585712 7.91034e+06 0 585705 7.91035e+06 0 585687 7.91033e+06 0 
585709 7.91036e+06 0 585708 7.91036e+06 0 585699 7.91036e+06 0 
585738 7.91038e+06 0 585727 7.91037e+06 0 585721 7.91037e+06 0 
585721 7.91036e+06 0 585735 7.91036e+06 0 585742 7.91037e+06 0 
585709 7.91037e+06 0 585720 7.91035e+06 0 585699 7.91038e+06 0 
585760 7.91038e+06 0 585750 7.91036e+06 0 585733 7.91039e+06 0 
585723 7.91039e+06 0 585711 7.91039e+06 0 585703 7.91039e+06 0 
585752 7.91041e+06 0 585748 7.91041e+06 0 585740 7.9104e+06 0 
585742 7.9104e+06 0 585761 7.9104e+06 0 585759 7.91041e+06 0 
585767 7.91038e+06 0 585731 7.91041e+06 0 585722 7.9104e+06 0 
585714 7.91041e+06 0 585707 7.91041e+06 0 585736 7.91042e+06 0 
585747 7.91042e+06 0 585729 7.91041e+06 0 585725 7.91042e+06 0 
585729 7.91043e+06 0 585744 7.91044e+06 0 585716 7.91043e+06 0 
585709 7.91043e+06 0 585741 7.91045e+06 0 585756 7.91044e+06 0 
585754 7.91046e+06 0 585728 7.91047e+06 0 585718 7.91046e+06 0 
585701 7.91045e+06 0 585694 7.91045e+06 0 585821 7.91036e+06 0 
585819 7.91038e+06 0 585811 7.9104e+06 0 585799 7.9104e+06 0 
585790 7.91038e+06 0 585797 7.91036e+06 0 585780 7.91038e+06 0 
585780 7.91036e+06 0 585771 7.91038e+06 0 585767 7.91036e+06 0 
585769 7.91035e+06 0 585753 7.91036e+06 0 585760 7.91036e+06 0 
585811 7.9104e+06 0 585806 7.91040e+06 0 585796 7.9104e+06 0 
585793 7.91041e+06 0 585776 7.91041e+06 0 585809 7.91041e+06 0 
585808 7.91043e+06 0 585791 7.91042e+06 0 585819 7.91041e+06 0 
585821 7.91042e+06 0 585817 7.91042e+06 0 585828 7.9104e+06 0 
585836 7.91042e+06 0 585828 7.91042e+06 0 585777 7.91042e+06 0 
585774 7.91041e+06 0 585768 7.91043e+06 0 585759 7.91042e+06 0 
585754 7.91042e+06 0 585841 7.91042e+06 0 585839 7.91043e+06 0 
585856 7.91044e+06 0 585854 7.91043e+06 0 585860 7.91042e+06 0 
585872 7.91042e+06 0 585864 7.91044e+06 0 585849 7.91044e+06 0 
585843 7.91045e+06 0 585836 7.91044e+06 0 585831 7.91044e+06 0 
585828 7.91043e+06 0 585826 7.91043e+06 0 585816 7.91044e+06 0 
585806 7.91044e+06 0 585801 7.91044e+06 0 585795 7.91044e+06 0 
585781 7.91043e+06 0 585782 7.91043e+06 0 585772 7.91045e+06 0 
585763 7.91044e+06 0 585871 7.91045e+06 0 585867 7.91046e+06 0 
585832 7.91045e+06 0 585788 7.91046e+06 0 585807 7.91045e+06 0 
585804 7.91046e+06 0 585738 7.91047e+06 0 585750 7.91047e+06 0 
585745 7.91048e+06 0 585738 7.91049e+06 0 585732 7.91048e+06 0 
585747 7.91049e+06 0 585719 7.91048e+06 0 585716 7.91048e+06 0 
585699 7.91048e+06 0 585694 7.91047e+06 0 585741 7.91051e+06 0 
585733 7.9105e+06 0 585750 7.91049e+06 0 585753 7.9105e+06 0 
585744 7.91051e+06 0 585718 7.9105e+06 0 585702 7.9105e+06 0 
585725 7.91052e+06 0 585717 7.91052e+06 0 585717 7.91051e+06 0 
585741 7.91051e+06 0 585729 7.91052e+06 0 585746 7.91052e+06 0 
585747 7.91052e+06 0 585734 7.91053e+06 0 585706 7.91051e+06 0 
585704 7.91051e+06 0 585693 7.91052e+06 0 585713 7.91053e+06 0 
585707 7.91053e+06 0 585702 7.91054e+06 0 585727 7.91053e+06 0 
585765 7.91046e+06 0 585784 7.91047e+06 0 585777 7.91048e+06 0 
585762 7.91047e+06 0 585783 7.91048e+06 0 585779 7.91049e+06 0 
585801 7.91048e+06 0 585796 7.91049e+06 0 585773 7.9105e+06 0 
585756 7.91048e+06 0 585758 7.91048e+06 0 585786 7.9105e+06 0 
585779 7.9105e+06 0 585791 7.9105e+06 0 585783 7.91052e+06 0 
585777 7.91052e+06 0 585770 7.91051e+06 0 585789 7.91052e+06 0 
585762 7.9105e+06 0 585760 7.91051e+06 0 585751 7.91051e+06 0 
585755 7.91053e+06 0 585758 7.91052e+06 0 585774 7.91053e+06 0 
585765 7.91054e+06 0 585814 7.91046e+06 0 585813 7.91045e+06 0 
585832 7.91046e+06 0 585808 7.91048e+06 0 585799 7.91047e+06 0 
585816 7.91047e+06 0 585815 7.91048e+06 0 585819 7.9105e+06 0 
585814 7.91049e+06 0 585831 7.91048e+06 0 585831 7.91049e+06 0 
585810 7.91049e+06 0 585818 7.9105e+06 0 585810 7.9105e+06 0 
585823 7.91052e+06 0 585807 7.91051e+06 0 585826 7.91051e+06 0 
[...]
CELL_DATA 468
SCALARS A int
LOOKUP_TABLE default
0 1 2 3 4 5 6 7 8 
9 10 11 12 13 14 15 16 17 
18 19 20 21 22 23 24 25 26 
27 28 29 30 31 32 33 34 35 
36 37 38 39 40 41 42 43 44 
45 46 47 48 49 50 51 52 53 
54 55 56 57 58 59 60 61 62 
63 64 65 66 67 68 69 70 71 
72 73 74 75 76 77 78 79 80 
81 82 83 84 85 86 87 88 89 
90 91 92 93 94 95 96 97 98 
99 100 101 102 103 104 105 106 107 
108 109 110 111 112 113 114 115 116 
117 118 119 120 121 122 123 124 125 
126 127 128 129 130 131 132 133 134 
135 136 137 138 139 140 141 142 143 
144 145 146 147 148 149 150 151 152 
153 154 155 156 157 158 159 160 161 
162 163 164 165 166 167 168 169 170 
171 172 173 174 175 176 177 178 179 
180 181 182 183 184 185 186 187 188 
189 190 191 192 193 194 195 196 197 
198 199 200 201 202 203 204 205 206 
207 208 209 210 211 212 213 214 215 
216 217 218 219 220 221 222 223 224 
225 226 227 228 229 230 231 232 233 
234 235 236 237 238 239 240 241 242 
243 244 245 246 247 248 249 250 251 
252 253 254 255 256 257 258 259 260 
261 262 263 264 265 266 267 268 269 
270 271 272 273 274 275 276 277 278 
279 280 281 282 283 284 285 286 287 
288 289 290 291 292 293 294 295 296 
297 298 299 300 301 302 303 304 305 
306 307 308 309 310 311 312 313 314 
315 316 317 318 319 320 321 322 323 
324 325 326 327 328 329 330 331 332 
333 334 335 336 337 338 339 340 341 
342 343 344 345 346 347 348 349 350 
351 352 353 354 355 356 357 358 359 
360 361 362 363 364 365 366 367 368 
369 370 371 372 373 374 375 376 377 
378 379 380 381 382 383 384 385 386 
387 388 389 390 391 392 393 394 395 
396 397 398 399 400 401 402 403 404 
405 406 407 408 409 410 411 412 413 
414 415 416 417 418 419 420 421 422 
423 424 425 426 427 428 429 430 431 
432 433 434 435 436 437 438 439 440 
441 442 443 444 445 446 447 448 449 
450 451 452 453 454 455 456 457 458 
459 460 461 462 463 464 465 466 467 

FIELD FieldData 1
avtOriginalCellNumbers 2 468 unsigned_int
0 0 0 1 0 2 0 3 0 
4 0 5 0 6 0 7 0 8 
0 9 0 10 0 11 0 12 0 
13 0 14 0 15 0 16 0 17 
0 18 0 19 0 20 0 21 0 
22 0 23 0 24 0 25 0 26 
0 27 0 28 0 29 0 30 0 
31 0 32 0 33 0 34 0 35 
0 36 0 37 0 38 0 39 0 
40 0 41 0 42 0 43 0 44 
0 45 0 46 0 47 0 48 0 
49 0 50 0 51 0 52 0 53 
0 54 0 55 0 56 0 57 0 
58 0 59 0 60 0 61 0 62 
0 63 0 64 0 65 0 66 0 
67 0 68 0 69 0 70 0 71 
0 72 0 73 0 74 0 75 0 
76 0 77 0 78 0 79 0 80 
0 81 0 82 0 83 0 84 0 
85 0 86 0 87 0 88 0 89 
0 90 0 91 0 92 0 93 0 
94 0 95 0 96 0 97 0 98 
0 99 0 100 0 101 0 102 0 
103 0 104 0 105 0 106 0 107 
0 108 0 109 0 110 0 111 0 
112 0 113 0 114 0 115 0 116 
0 117 0 118 0 119 0 120 0 
121 0 122 0 123 0 124 0 125 
0 126 0 127 0 128 0 129 0 
130 0 131 0 132 0 133 0 134 
0 135 0 136 0 137 0 138 0 
139 0 140 0 141 0 142 0 143 
0 144 0 145 0 146 0 147 0 
148 0 149 0 150 0 151 0 152 
0 153 0 154 0 155 0 156 0 
157 0 158 0 159 0 160 0 161 
0 162 0 163 0 164 0 165 0 
166 0 167 0 168 0 169 0 170 
0 171 0 172 0 173 0 174 0 
175 0 176 0 177 0 178 0 179 
0 180 0 181 0 182 0 183 0 
184 0 185 0 186 0 187 0 188 
0 189 0 190 0 191 0 192 0 
193 0 194 0 195 0 196 0 197 
0 198 0 199 0 200 0 201 0 
202 0 203 0 204 0 205 0 206 
0 207 0 208 0 209 0 210 0 
211 0 212 0 213 0 214 0 215 
0 216 0 217 0 218 0 219 0 
220 0 221 0 222 0 223 0 224 
0 225 0 226 0 227 0 228 0 
229 0 230 0 231 0 232 0 233 
0 234 0 235 0 236 0 237 0 
238 0 239 0 240 0 241 0 242 
0 243 0 244 0 245 0 246 0 
247 0 248 0 249 0 250 0 251 
0 252 0 253 0 254 0 255 0 
256 0 257 0 258 0 259 0 260 
0 261 0 262 0 263 0 264 0 
265 0 266 0 267 0 268 0 269 
0 270 0 271 0 272 0 273 0 
274 0 275 0 276 0 277 0 278 
0 279 0 280 0 281 0 282 0 
283 0 284 0 285 0 286 0 287 
0 288 0 289 0 290 0 291 0 
292 0 293 0 294 0 295 0 296 
0 297 0 298 0 299 0 300 0 
301 0 302 0 303 0 304 0 305 
0 306 0 307 0 308 0 309 0 
310 0 311 0 312 0 313 0 314 
0 315 0 316 0 317 0 318 0 
319 0 320 0 321 0 322 0 323 
0 324 0 325 0 326 0 327 0 
328 0 329 0 330 0 331 0 332 
0 333 0 334 0 335 0 336 0 
337 0 338 0 339 0 340 0 341 
0 342 0 343 0 344 0 345 0 
346 0 347 0 348 0 349 0 350 
0 351 0 352 0 353 0 354 0 
355 0 356 0 357 0 358 0 359 
0 360 0 361 0 362 0 363 0 
364 0 365 0 366 0 367 0 368 
0 369 0 370 0 371 0 372 0 
373 0 374 0 375 0 376 0 377 
0 378 0 379 0 380 0 381 0 
382 0 383 0 384 0 385 0 386 
0 387 0 388 0 389 0 390 0 
391 0 392 0 393 0 394 0 395 
0 396 0 397 0 398 0 399 0 
400 0 401 0 402 0 403 0 404 
0 405 0 406 0 407 0 408 0 
409 0 410 0 411 0 412 0 413 
0 414 0 415 0 416 0 417 0 
418 0 419 0 420 0 421 0 422 
0 423 0 424 0 425 0 426 0 
427 0 428 0 429 0 430 0 431 
0 432 0 433 0 434 0 435 0 
436 0 437 0 438 0 439 0 440 
0 441 0 442 0 443 0 444 0 
445 0 446 0 447 0 448 0 449 
0 450 0 451 0 452 0 453 0 
454 0 455 0 456 0 457 0 458 
0 459 0 460 0 461 0 462 0 
463 0 464 0 465 0 466 0 467 

